User input:
--------------------------------------------------------------
$molecule
0 1
 C                  0.00000000    0.00000000    0.47563839
 H                  0.00000000    0.00000000    1.56203774
 Cl                -1.41973774   -0.81968597   -0.08658571
 Cl                -0.00000000    1.63937194   -0.08658571
 Cl                 1.41973774   -0.81968597   -0.08658571
$end

$rem
jobtype sp
moprop 2
scf_convergence 8
basis aug-cc-pvdz
exchange pbe0
symmetry off
sym_ignore true
$end

--------------------------------------------------------------

   12   -1418.8200392479      2.75E-09  00000 Convergence criterion met
 Total energy in the final basis set = -1418.8200392479
 Total job time:  21.82s(wall), 21.79s(cpu)
        *  Thank you very much for using Q-Chem.  Have a nice day.  *

User input:
--------------------------------------------------------------

$molecule
read
$end

$rem
jobtype sp
do_dma true
scf_convergence 8
exchange hf
correlation rimp2
basis aug-cc-pvtz
aux_basis rimp2-aug-cc-pvtz
symmetry off
sym_ignore true
$end
--------------------------------------------------------------

       Standard Nuclear Orientation (Angstroms)
    I     Atom         X            Y            Z
 ----------------------------------------------------
    1      C       0.000000     0.000000     0.475638
    2      H       0.000000     0.000000     1.562038
    3      Cl     -1.419738    -0.819686    -0.086586
    4      Cl      0.000000     1.639372    -0.086586
    5      Cl      1.419738    -0.819686    -0.086586
 ----------------------------------------------------

   13   -1417.0004724698      3.54E-09  00000 Convergence criterion met
 Total energy in the final basis set = -1417.0004724698
        RIMP2         total energy =     -1417.8851259658 au

                    Orbital Energies (a.u.)
 --------------------------------------------------------------

 Alpha MOs
 -- Occupied --
*******-104.864-104.864 -11.427 -10.590 -10.590 -10.590  -8.056
 -8.056  -8.056  -8.054  -8.054  -8.054  -8.054  -8.054  -8.054
 -1.260  -1.119  -1.119  -0.872  -0.691  -0.635  -0.635  -0.507
 -0.507  -0.466  -0.466  -0.466  -0.447

          Ground-State Mulliken Net Atomic Charges

     Atom                 Charge (a.u.)
  ----------------------------------------
      1 C                     0.283086
      2 H                     0.273578
      3 Cl                   -0.185555
      4 Cl                   -0.185555
      5 Cl                   -0.185555
  ----------------------------------------
  Sum of atomic charges =     0.000000

                    Cartesian Multipole Moments
 -----------------------------------------------------------------
    Charge (ESU x 10^10)
                 0.0000
    Dipole Moment (Debye)
         X       0.0000      Y       0.0000      Z       1.2034
       Tot       1.2034
    Quadrupole Moments (Debye-Ang)
        XX     -44.7328     XY       0.0000     YY     -44.7328
        XZ       0.0000     YZ       0.0000     ZZ     -41.9992
    Octapole Moments (Debye-Ang^2)
       XXX       0.0000    XXY      -3.4340    XYY       0.0000
       YYY       3.4339    XXZ      -3.0291    XYZ       0.0000
       YYZ      -3.0291    XZZ       0.0000    YZZ       0.0000
       ZZZ       3.5661
    Hexadecapole Moments (Debye-Ang^3)
      XXXX    -340.0310   XXXY       0.0000   XXYY    -113.3437
      XYYY       0.0000   YYYY    -340.0310   XXXZ       0.0000
      XXYZ       4.3766   XYYZ       0.0000   YYYZ      -4.3766
      XXZZ     -70.6462   XYZZ       0.0000   YYZZ     -70.6462

 Total job time:  131.84s(wall), 131.71s(cpu)
        *  Thank you very much for using Q-Chem.  Have a nice day.  *
