User input:
--------------------------------------------------------------
$molecule
0 1
 C                  0.00000000    0.00000000    0.75758895
 H                  0.89463200   -0.00000000    1.37412495
 H                 -0.89463200   -0.00000000    1.37412495
 Cl                 0.00000000    1.47508500   -0.21452305
 Cl                 0.00000000   -1.47508500   -0.21452305
$end

$rem
jobtype sp
moprop 2
scf_convergence 8
basis aug-cc-pvdz
exchange pbe0
symmetry off
sym_ignore true
$end

--------------------------------------------------------------

   12    -959.3714082727      1.68E-09  00000 Convergence criterion met
 Total energy in the final basis set = -959.3714082727
 Total job time:  27.24s(wall), 27.22s(cpu)
        *  Thank you very much for using Q-Chem.  Have a nice day.  *

User input:
--------------------------------------------------------------

$molecule
read
$end

$rem
jobtype sp
do_dma true
scf_convergence 8
exchange hf
correlation rimp2
basis aug-cc-pvtz
aux_basis rimp2-aug-cc-pvtz
symmetry off
sym_ignore true
$end
--------------------------------------------------------------

       Standard Nuclear Orientation (Angstroms)
    I     Atom         X            Y            Z
 ----------------------------------------------------
    1      C       0.000000     0.000000     0.757589
    2      H       0.894632     0.000000     1.374125
    3      H      -0.894632     0.000000     1.374125
    4      Cl      0.000000     1.475085    -0.214523
    5      Cl      0.000000    -1.475085    -0.214523
 ----------------------------------------------------

   13    -958.0790773935      3.04E-09  00000 Convergence criterion met
 Total energy in the final basis set = -958.0790773935
        RIMP2         total energy =      -958.7360130137 au

                    Orbital Energies (a.u.)
 --------------------------------------------------------------

 Alpha MOs
 -- Occupied --
*******-104.851 -11.366 -10.575 -10.575  -8.042  -8.042  -8.040
 -8.040  -8.040  -8.040  -1.194  -1.098  -0.896  -0.676  -0.618
 -0.587  -0.475  -0.471  -0.449  -0.446

          Ground-State Mulliken Net Atomic Charges

     Atom                 Charge (a.u.)
  ----------------------------------------
      1 C                    -0.161757
      2 H                     0.303286
      3 H                     0.303286
      4 Cl                   -0.222408
      5 Cl                   -0.222408
  ----------------------------------------
  Sum of atomic charges =     0.000000

                    Cartesian Multipole Moments
 -----------------------------------------------------------------
    Charge (ESU x 10^10)
                 0.0000
    Dipole Moment (Debye)
         X       0.0000      Y       0.0000      Z       1.8198
       Tot       1.8198
    Quadrupole Moments (Debye-Ang)
        XX     -31.5463     XY       0.0000     YY     -34.4645
        XZ       0.0000     YZ       0.0000     ZZ     -29.8773
    Octapole Moments (Debye-Ang^2)
       XXX       0.0000    XXY       0.0000    XYY       0.0000
       YYY       0.0000    XXZ       2.0635    XYZ       0.0000
       YYZ      -4.5601    XZZ       0.0000    YZZ       0.0000
       ZZZ       1.9870
    Hexadecapole Moments (Debye-Ang^3)
      XXXX     -41.2927   XXXY       0.0000   XXYY     -71.4962
      XYYY       0.0000   YYYY    -357.7161   XXXZ       0.0000
      XXYZ       0.0000   XYYZ       0.0000   YYYZ       0.0000
      XXZZ     -17.0123   XYZZ       0.0000   YYZZ     -71.2677

 Total job time:  148.47s(wall), 148.29s(cpu)
        *  Thank you very much for using Q-Chem.  Have a nice day.  *
